# LAMMPS data file written by OVITO Basic 3.5.4
108 atoms
1 atom types
0.0 10.8441 xlo xhi
0.0 10.8441 ylo yhi
0.0 10.8441 zlo zhi

Masses

1 63.546  # Cu

Atoms  # atomic

1 1 0.0 0.0 0.0
2 1 0.0 1.807386147 1.807386147
3 1 1.807386147 0.0 1.807386147
4 1 1.807386147 1.807386147 0.0
5 1 3.614663853 0.0 0.0
6 1 3.614663853 1.807386147 1.807386147
7 1 5.42205 0.0 1.807386147
8 1 5.42205 1.807386147 0.0
9 1 7.229436147 0.0 0.0
10 1 7.229436147 1.807386147 1.807386147
11 1 9.036713853 0.0 1.807386147
12 1 9.036713853 1.807386147 0.0
13 1 0.0 3.614663853 0.0
14 1 0.0 5.42205 1.807386147
15 1 1.807386147 3.614663853 1.807386147
16 1 1.807386147 5.42205 0.0
17 1 3.614663853 3.614663853 0.0
18 1 3.614663853 5.42205 1.807386147
19 1 5.42205 3.614663853 1.807386147
20 1 5.42205 5.42205 0.0
21 1 7.229436147 3.614663853 0.0
22 1 7.229436147 5.42205 1.807386147
23 1 9.036713853 3.614663853 1.807386147
24 1 9.036713853 5.42205 0.0
25 1 0.0 7.229436147 0.0
26 1 0.0 9.036713853 1.807386147
27 1 1.807386147 7.229436147 1.807386147
28 1 1.807386147 9.036713853 0.0
29 1 3.614663853 7.229436147 0.0
30 1 3.614663853 9.036713853 1.807386147
31 1 5.42205 7.229436147 1.807386147
32 1 5.42205 9.036713853 0.0
33 1 7.229436147 7.229436147 0.0
34 1 7.229436147 9.036713853 1.807386147
35 1 9.036713853 7.229436147 1.807386147
36 1 9.036713853 9.036713853 0.0
37 1 0.0 0.0 3.614663853
38 1 0.0 1.807386147 5.42205
39 1 1.807386147 0.0 5.42205
40 1 1.807386147 1.807386147 3.614663853
41 1 3.614663853 0.0 3.614663853
42 1 3.614663853 1.807386147 5.42205
43 1 5.42205 0.0 5.42205
44 1 5.42205 1.807386147 3.614663853
45 1 7.229436147 0.0 3.614663853
46 1 7.229436147 1.807386147 5.42205
47 1 9.036713853 0.0 5.42205
48 1 9.036713853 1.807386147 3.614663853
49 1 0.0 3.614663853 3.614663853
50 1 0.0 5.42205 5.42205
51 1 1.807386147 3.614663853 5.42205
52 1 1.807386147 5.42205 3.614663853
53 1 3.614663853 3.614663853 3.614663853
54 1 3.614663853 5.42205 5.42205
55 1 5.42205 3.614663853 5.42205
56 1 5.42205 5.42205 3.614663853
57 1 7.229436147 3.614663853 3.614663853
58 1 7.229436147 5.42205 5.42205
59 1 9.036713853 3.614663853 5.42205
60 1 9.036713853 5.42205 3.614663853
61 1 0.0 7.229436147 3.614663853
62 1 0.0 9.036713853 5.42205
63 1 1.807386147 7.229436147 5.42205
64 1 1.807386147 9.036713853 3.614663853
65 1 3.614663853 7.229436147 3.614663853
66 1 3.614663853 9.036713853 5.42205
67 1 5.42205 7.229436147 5.42205
68 1 5.42205 9.036713853 3.614663853
69 1 7.229436147 7.229436147 3.614663853
70 1 7.229436147 9.036713853 5.42205
71 1 9.036713853 7.229436147 5.42205
72 1 9.036713853 9.036713853 3.614663853
73 1 0.0 0.0 7.229436147
74 1 0.0 1.807386147 9.036713853
75 1 1.807386147 0.0 9.036713853
76 1 1.807386147 1.807386147 7.229436147
77 1 3.614663853 0.0 7.229436147
78 1 3.614663853 1.807386147 9.036713853
79 1 5.42205 0.0 9.036713853
80 1 5.42205 1.807386147 7.229436147
81 1 7.229436147 0.0 7.229436147
82 1 7.229436147 1.807386147 9.036713853
83 1 9.036713853 0.0 9.036713853
84 1 9.036713853 1.807386147 7.229436147
85 1 0.0 3.614663853 7.229436147
86 1 0.0 5.42205 9.036713853
87 1 1.807386147 3.614663853 9.036713853
88 1 1.807386147 5.42205 7.229436147
89 1 3.614663853 3.614663853 7.229436147
90 1 3.614663853 5.42205 9.036713853
91 1 5.42205 3.614663853 9.036713853
92 1 5.42205 5.42205 7.229436147
93 1 7.229436147 3.614663853 7.229436147
94 1 7.229436147 5.42205 9.036713853
95 1 9.036713853 3.614663853 9.036713853
96 1 9.036713853 5.42205 7.229436147
97 1 0.0 7.229436147 7.229436147
98 1 0.0 9.036713853 9.036713853
99 1 1.807386147 7.229436147 9.036713853
100 1 1.807386147 9.036713853 7.229436147
101 1 3.614663853 7.229436147 7.229436147
102 1 3.614663853 9.036713853 9.036713853
103 1 5.42205 7.229436147 9.036713853
104 1 5.42205 9.036713853 7.229436147
105 1 7.229436147 7.229436147 7.229436147
106 1 7.229436147 9.036713853 9.036713853
107 1 9.036713853 7.229436147 9.036713853
108 1 9.036713853 9.036713853 7.229436147
